Program Version,EnergyPlus, Version 8.9.0-40101eaafd, YMD=2020.01.11 16:35
1,5,Environment Title[],Latitude[deg],Longitude[deg],Time Zone[],Elevation[m]
2,8,Day of Simulation[],Month[],Day of Month[],DST Indicator[1=yes 0=no],Hour[],StartMinute[],EndMinute[],DayType
3,5,Cumulative Day of Simulation[],Month[],Day of Month[],DST Indicator[1=yes 0=no],DayType  ! When Daily Report Variables Requested
4,2,Cumulative Days of Simulation[],Month[]  ! When Monthly Report Variables Requested
5,1,Cumulative Days of Simulation[] ! When Run Period Report Variables Requested
6,1,Calendar Year of Simulation[] ! When Annual Report Variables Requested
7,1,ZONE,Zone Mean Air Temperature [C] !Hourly
End of Data Dictionary
1,RUNPERIOD,  39.76,-104.86,  -7.00,1611.00
2,1, 1, 1, 0, 1, 0.00,60.00,Sunday
7,15.775479498915802
2,1, 1, 1, 0, 2, 0.00,60.00,Sunday
7,14.115315803663404
2,1, 1, 1, 0, 3, 0.00,60.00,Sunday
7,12.579313787146323
2,1, 1, 1, 0, 4, 0.00,60.00,Sunday
7,11.235237916652512
2,1, 1, 1, 0, 5, 0.00,60.00,Sunday
7,10.057471210159419
2,1, 1, 1, 0, 6, 0.00,60.00,Sunday
7,9.042004081788317
2,1, 1, 1, 0, 7, 0.00,60.00,Sunday
7,8.409687937619513
2,1, 1, 1, 0, 8, 0.00,60.00,Sunday
7,8.1138770189697
2,1, 1, 1, 0, 9, 0.00,60.00,Sunday
7,8.676616722424916
2,1, 1, 1, 0,10, 0.00,60.00,Sunday
7,10.07770975064526
2,1, 1, 1, 0,11, 0.00,60.00,Sunday
7,16.551921347462387
2,1, 1, 1, 0,12, 0.00,60.00,Sunday
7,26.195289212166128
2,1, 1, 1, 0,13, 0.00,60.00,Sunday
7,34.64400779169435
2,1, 1, 1, 0,14, 0.00,60.00,Sunday
7,41.12599795856416
2,1, 1, 1, 0,15, 0.00,60.00,Sunday
7,44.98676309267378
2,1, 1, 1, 0,16, 0.00,60.00,Sunday
7,45.86773846113698
2,1, 1, 1, 0,17, 0.00,60.00,Sunday
7,42.54155179441371
2,1, 1, 1, 0,18, 0.00,60.00,Sunday
7,37.8057428572939
2,1, 1, 1, 0,19, 0.00,60.00,Sunday
7,33.60891532307054
2,1, 1, 1, 0,20, 0.00,60.00,Sunday
7,29.854602336535565
2,1, 1, 1, 0,21, 0.00,60.00,Sunday
7,26.43367435084545
2,1, 1, 1, 0,22, 0.00,60.00,Sunday
7,23.421750925968469
2,1, 1, 1, 0,23, 0.00,60.00,Sunday
7,20.660707400926684
2,1, 1, 1, 0,24, 0.00,60.00,Sunday
7,17.973953543785723
2,2, 1, 2, 0, 1, 0.00,60.00,Monday
7,15.324917854574422
2,2, 1, 2, 0, 2, 0.00,60.00,Monday
7,13.001162770413324
2,2, 1, 2, 0, 3, 0.00,60.00,Monday
7,10.696210584637239
2,2, 1, 2, 0, 4, 0.00,60.00,Monday
7,8.507806570486942
2,2, 1, 2, 0, 5, 0.00,60.00,Monday
7,6.491810956453447
2,2, 1, 2, 0, 6, 0.00,60.00,Monday
7,4.619828944393692
2,2, 1, 2, 0, 7, 0.00,60.00,Monday
7,2.885751523651647
2,2, 1, 2, 0, 8, 0.00,60.00,Monday
7,1.3635025568061723
2,2, 1, 2, 0, 9, 0.00,60.00,Monday
7,0.11275764747261374
2,2, 1, 2, 0,10, 0.00,60.00,Monday
7,-0.8682335137533782
2,2, 1, 2, 0,11, 0.00,60.00,Monday
7,-1.5892535190895947
2,2, 1, 2, 0,12, 0.00,60.00,Monday
7,-2.2524479646527157
2,2, 1, 2, 0,13, 0.00,60.00,Monday
7,-3.0033826135035426
2,2, 1, 2, 0,14, 0.00,60.00,Monday
7,-3.745104421314119
2,2, 1, 2, 0,15, 0.00,60.00,Monday
7,-4.4642798338082418
2,2, 1, 2, 0,16, 0.00,60.00,Monday
7,-5.31319532844983
2,2, 1, 2, 0,17, 0.00,60.00,Monday
7,-6.368530452419374
2,2, 1, 2, 0,18, 0.00,60.00,Monday
7,-7.461501651683381
2,2, 1, 2, 0,19, 0.00,60.00,Monday
7,-8.428497534235277
2,2, 1, 2, 0,20, 0.00,60.00,Monday
7,-9.300688354411108
2,2, 1, 2, 0,21, 0.00,60.00,Monday
7,-10.107500965234705
2,2, 1, 2, 0,22, 0.00,60.00,Monday
7,-10.855352327059899
2,2, 1, 2, 0,23, 0.00,60.00,Monday
7,-11.596232726697336
2,2, 1, 2, 0,24, 0.00,60.00,Monday
7,-12.225584806322129
2,3, 1, 3, 0, 1, 0.00,60.00,Tuesday
7,-12.768448995185615
2,3, 1, 3, 0, 2, 0.00,60.00,Tuesday
7,-13.265881515893883
2,3, 1, 3, 0, 3, 0.00,60.00,Tuesday
7,-13.649585640429736
2,3, 1, 3, 0, 4, 0.00,60.00,Tuesday
7,-14.053043330717733
2,3, 1, 3, 0, 5, 0.00,60.00,Tuesday
7,-14.506003649002205
2,3, 1, 3, 0, 6, 0.00,60.00,Tuesday
7,-14.992155501391622
2,3, 1, 3, 0, 7, 0.00,60.00,Tuesday
7,-15.44245691194445
2,3, 1, 3, 0, 8, 0.00,60.00,Tuesday
7,-15.730948665182755
2,3, 1, 3, 0, 9, 0.00,60.00,Tuesday
7,-15.377619106499204
2,3, 1, 3, 0,10, 0.00,60.00,Tuesday
7,-14.975465350697633
2,3, 1, 3, 0,11, 0.00,60.00,Tuesday
7,-14.08541805256963
2,3, 1, 3, 0,12, 0.00,60.00,Tuesday
7,-6.6373789803906109
2,3, 1, 3, 0,13, 0.00,60.00,Tuesday
7,2.2483553442596628
2,3, 1, 3, 0,14, 0.00,60.00,Tuesday
7,6.921067334267105
2,3, 1, 3, 0,15, 0.00,60.00,Tuesday
7,9.498540206571232
2,3, 1, 3, 0,16, 0.00,60.00,Tuesday
7,10.895298130575175
2,3, 1, 3, 0,17, 0.00,60.00,Tuesday
7,8.677714408302798
2,3, 1, 3, 0,18, 0.00,60.00,Tuesday
7,5.1848968590839938
2,3, 1, 3, 0,19, 0.00,60.00,Tuesday
7,1.9002213142406135
2,3, 1, 3, 0,20, 0.00,60.00,Tuesday
7,-0.8309392570757609
2,3, 1, 3, 0,21, 0.00,60.00,Tuesday
7,-2.947305688060996
2,3, 1, 3, 0,22, 0.00,60.00,Tuesday
7,-5.010921684334326
2,3, 1, 3, 0,23, 0.00,60.00,Tuesday
7,-6.703538820538433
2,3, 1, 3, 0,24, 0.00,60.00,Tuesday
7,-8.290756210652589
2,4, 1, 4, 0, 1, 0.00,60.00,Wednesday
7,-9.882674504528925
2,4, 1, 4, 0, 2, 0.00,60.00,Wednesday
7,-11.41958359335137
2,4, 1, 4, 0, 3, 0.00,60.00,Wednesday
7,-12.749049227755867
2,4, 1, 4, 0, 4, 0.00,60.00,Wednesday
7,-13.827850218936272
2,4, 1, 4, 0, 5, 0.00,60.00,Wednesday
7,-14.788187172057372
2,4, 1, 4, 0, 6, 0.00,60.00,Wednesday
7,-15.611424874989483
2,4, 1, 4, 0, 7, 0.00,60.00,Wednesday
7,-16.34052383323628
2,4, 1, 4, 0, 8, 0.00,60.00,Wednesday
7,-16.577543647895014
2,4, 1, 4, 0, 9, 0.00,60.00,Wednesday
7,-13.892581647225324
2,4, 1, 4, 0,10, 0.00,60.00,Wednesday
7,-8.080731568150487
2,4, 1, 4, 0,11, 0.00,60.00,Wednesday
7,0.7665727226586693
2,4, 1, 4, 0,12, 0.00,60.00,Wednesday
7,10.441375104854929
2,4, 1, 4, 0,13, 0.00,60.00,Wednesday
7,18.33202061901413
2,4, 1, 4, 0,14, 0.00,60.00,Wednesday
7,24.636869391968067
2,4, 1, 4, 0,15, 0.00,60.00,Wednesday
7,28.241276693969345
2,4, 1, 4, 0,16, 0.00,60.00,Wednesday
7,28.773541273554185
2,4, 1, 4, 0,17, 0.00,60.00,Wednesday
7,25.022627669525705
2,4, 1, 4, 0,18, 0.00,60.00,Wednesday
7,19.460444037408239
2,4, 1, 4, 0,19, 0.00,60.00,Wednesday
7,14.68749933514454
2,4, 1, 4, 0,20, 0.00,60.00,Wednesday
7,10.576820137300983
2,4, 1, 4, 0,21, 0.00,60.00,Wednesday
7,7.150247189514517
2,4, 1, 4, 0,22, 0.00,60.00,Wednesday
7,3.982590923797126
2,4, 1, 4, 0,23, 0.00,60.00,Wednesday
7,1.4163513026777932
2,4, 1, 4, 0,24, 0.00,60.00,Wednesday
7,-0.6311585402178158
2,5, 1, 5, 0, 1, 0.00,60.00,Thursday
7,-2.6779091083854706
2,5, 1, 5, 0, 2, 0.00,60.00,Thursday
7,-4.373757337829281
2,5, 1, 5, 0, 3, 0.00,60.00,Thursday
7,-5.714540194210737
2,5, 1, 5, 0, 4, 0.00,60.00,Thursday
7,-5.653842627373667
2,5, 1, 5, 0, 5, 0.00,60.00,Thursday
7,-5.2127872242575699
2,5, 1, 5, 0, 6, 0.00,60.00,Thursday
7,-5.913502257159718
2,5, 1, 5, 0, 7, 0.00,60.00,Thursday
7,-6.2225545726779
2,5, 1, 5, 0, 8, 0.00,60.00,Thursday
7,-5.86112335281215
2,5, 1, 5, 0, 9, 0.00,60.00,Thursday
7,-1.0543351042024876
2,5, 1, 5, 0,10, 0.00,60.00,Thursday
7,7.544984201416977
2,5, 1, 5, 0,11, 0.00,60.00,Thursday
7,16.34153133381224
2,5, 1, 5, 0,12, 0.00,60.00,Thursday
7,24.298599151429675
2,5, 1, 5, 0,13, 0.00,60.00,Thursday
7,31.876914315484105
2,5, 1, 5, 0,14, 0.00,60.00,Thursday
7,38.087360040832937
2,5, 1, 5, 0,15, 0.00,60.00,Thursday
7,41.83531026422101
2,5, 1, 5, 0,16, 0.00,60.00,Thursday
7,42.5695109182118
2,5, 1, 5, 0,17, 0.00,60.00,Thursday
7,39.44855179337979
2,5, 1, 5, 0,18, 0.00,60.00,Thursday
7,34.617312836010828
2,5, 1, 5, 0,19, 0.00,60.00,Thursday
7,30.085636617987775
2,5, 1, 5, 0,20, 0.00,60.00,Thursday
7,26.310168410125269
2,5, 1, 5, 0,21, 0.00,60.00,Thursday
7,22.836339664214834
2,5, 1, 5, 0,22, 0.00,60.00,Thursday
7,19.761685625258534
2,5, 1, 5, 0,23, 0.00,60.00,Thursday
7,17.173126087955226
2,5, 1, 5, 0,24, 0.00,60.00,Thursday
7,14.97578258747499
2,6, 1, 6, 0, 1, 0.00,60.00,Friday
7,12.966183539009986
2,6, 1, 6, 0, 2, 0.00,60.00,Friday
7,11.130344265237302
2,6, 1, 6, 0, 3, 0.00,60.00,Friday
7,9.75326436306661
2,6, 1, 6, 0, 4, 0.00,60.00,Friday
7,8.878267977405402
2,6, 1, 6, 0, 5, 0.00,60.00,Friday
7,7.839848897554841
2,6, 1, 6, 0, 6, 0.00,60.00,Friday
7,6.58963213052843
2,6, 1, 6, 0, 7, 0.00,60.00,Friday
7,5.660865705297347
2,6, 1, 6, 0, 8, 0.00,60.00,Friday
7,5.350175829313314
2,6, 1, 6, 0, 9, 0.00,60.00,Friday
7,9.402849917653546
2,6, 1, 6, 0,10, 0.00,60.00,Friday
7,17.66645044165934
2,6, 1, 6, 0,11, 0.00,60.00,Friday
7,26.60253275039332
2,6, 1, 6, 0,12, 0.00,60.00,Friday
7,35.077859016325799
2,6, 1, 6, 0,13, 0.00,60.00,Friday
7,43.14737331950725
2,6, 1, 6, 0,14, 0.00,60.00,Friday
7,49.17095348621706
2,6, 1, 6, 0,15, 0.00,60.00,Friday
7,52.496615651620057
2,6, 1, 6, 0,16, 0.00,60.00,Friday
7,52.53074790904054
2,6, 1, 6, 0,17, 0.00,60.00,Friday
7,48.513460387366468
2,6, 1, 6, 0,18, 0.00,60.00,Friday
7,42.860170944315019
2,6, 1, 6, 0,19, 0.00,60.00,Friday
7,37.91966972080141
2,6, 1, 6, 0,20, 0.00,60.00,Friday
7,33.50898993024883
2,6, 1, 6, 0,21, 0.00,60.00,Friday
7,29.96668376677838
2,6, 1, 6, 0,22, 0.00,60.00,Friday
7,26.57963584376178
2,6, 1, 6, 0,23, 0.00,60.00,Friday
7,23.470178176389653
2,6, 1, 6, 0,24, 0.00,60.00,Friday
7,21.103011141160175
2,7, 1, 7, 0, 1, 0.00,60.00,Saturday
7,18.963943901764645
2,7, 1, 7, 0, 2, 0.00,60.00,Saturday
7,16.730440861119115
2,7, 1, 7, 0, 3, 0.00,60.00,Saturday
7,14.730509378441703
2,7, 1, 7, 0, 4, 0.00,60.00,Saturday
7,12.864498425885313
2,7, 1, 7, 0, 5, 0.00,60.00,Saturday
7,11.184393356633743
2,7, 1, 7, 0, 6, 0.00,60.00,Saturday
7,9.786131282251305
2,7, 1, 7, 0, 7, 0.00,60.00,Saturday
7,8.53504318030475
2,7, 1, 7, 0, 8, 0.00,60.00,Saturday
7,8.080493411650789
2,7, 1, 7, 0, 9, 0.00,60.00,Saturday
7,11.972367532702393
2,7, 1, 7, 0,10, 0.00,60.00,Saturday
7,20.26756856255178
2,7, 1, 7, 0,11, 0.00,60.00,Saturday
7,29.23513480507082
2,7, 1, 7, 0,12, 0.00,60.00,Saturday
7,37.591008665696367
2,7, 1, 7, 0,13, 0.00,60.00,Saturday
7,44.78936404006595
2,7, 1, 7, 0,14, 0.00,60.00,Saturday
7,49.960546028006138
2,7, 1, 7, 0,15, 0.00,60.00,Saturday
7,52.72956418927184
2,7, 1, 7, 0,16, 0.00,60.00,Saturday
7,52.61942909182251
2,7, 1, 7, 0,17, 0.00,60.00,Saturday
7,48.580458623719
2,7, 1, 7, 0,18, 0.00,60.00,Saturday
7,42.742960562253937
2,7, 1, 7, 0,19, 0.00,60.00,Saturday
7,37.49313297043826
2,7, 1, 7, 0,20, 0.00,60.00,Saturday
7,32.98726522550667
2,7, 1, 7, 0,21, 0.00,60.00,Saturday
7,28.623184721656029
2,7, 1, 7, 0,22, 0.00,60.00,Saturday
7,24.912733966461656
2,7, 1, 7, 0,23, 0.00,60.00,Saturday
7,21.5459617215099
2,7, 1, 7, 0,24, 0.00,60.00,Saturday
7,18.63766411937631
2,8, 1, 8, 0, 1, 0.00,60.00,Sunday
7,16.16901422370929
2,8, 1, 8, 0, 2, 0.00,60.00,Sunday
7,13.917040622293129
2,8, 1, 8, 0, 3, 0.00,60.00,Sunday
7,11.883415114259883
2,8, 1, 8, 0, 4, 0.00,60.00,Sunday
7,10.171459466296439
2,8, 1, 8, 0, 5, 0.00,60.00,Sunday
7,8.853609048099337
2,8, 1, 8, 0, 6, 0.00,60.00,Sunday
7,7.715619824401761
2,8, 1, 8, 0, 7, 0.00,60.00,Sunday
7,6.603789595241619
2,8, 1, 8, 0, 8, 0.00,60.00,Sunday
7,6.131307883159302
2,8, 1, 8, 0, 9, 0.00,60.00,Sunday
7,9.463199198710262
2,8, 1, 8, 0,10, 0.00,60.00,Sunday
7,17.070694411801925
2,8, 1, 8, 0,11, 0.00,60.00,Sunday
7,25.942524898649123
2,8, 1, 8, 0,12, 0.00,60.00,Sunday
7,34.55550217198656
2,8, 1, 8, 0,13, 0.00,60.00,Sunday
7,42.155046417512298
2,8, 1, 8, 0,14, 0.00,60.00,Sunday
7,47.69989967698679
2,8, 1, 8, 0,15, 0.00,60.00,Sunday
7,51.00394110718871
2,8, 1, 8, 0,16, 0.00,60.00,Sunday
7,51.37861788351326
2,8, 1, 8, 0,17, 0.00,60.00,Sunday
7,47.68366767148589
2,8, 1, 8, 0,18, 0.00,60.00,Sunday
7,42.2676139927473
2,8, 1, 8, 0,19, 0.00,60.00,Sunday
7,37.14880386982439
2,8, 1, 8, 0,20, 0.00,60.00,Sunday
7,32.57228551180175
2,8, 1, 8, 0,21, 0.00,60.00,Sunday
7,28.372303453263688
2,8, 1, 8, 0,22, 0.00,60.00,Sunday
7,24.751071938686179
2,8, 1, 8, 0,23, 0.00,60.00,Sunday
7,21.37108198045283
2,8, 1, 8, 0,24, 0.00,60.00,Sunday
7,18.29450078074931
2,9, 1, 9, 0, 1, 0.00,60.00,Monday
7,15.621417539872042
2,9, 1, 9, 0, 2, 0.00,60.00,Monday
7,13.38237964548565
2,9, 1, 9, 0, 3, 0.00,60.00,Monday
7,11.334156919960444
2,9, 1, 9, 0, 4, 0.00,60.00,Monday
7,9.60638461422391
2,9, 1, 9, 0, 5, 0.00,60.00,Monday
7,8.190442277394528
2,9, 1, 9, 0, 6, 0.00,60.00,Monday
7,6.9218422614396879
2,9, 1, 9, 0, 7, 0.00,60.00,Monday
7,5.89242406869795
2,9, 1, 9, 0, 8, 0.00,60.00,Monday
7,5.707051847945168
2,9, 1, 9, 0, 9, 0.00,60.00,Monday
7,9.932180873035163
2,9, 1, 9, 0,10, 0.00,60.00,Monday
7,18.52725948575606
2,9, 1, 9, 0,11, 0.00,60.00,Monday
7,27.45617715390879
2,9, 1, 9, 0,12, 0.00,60.00,Monday
7,35.76973843369044
2,9, 1, 9, 0,13, 0.00,60.00,Monday
7,43.39178157028412
2,9, 1, 9, 0,14, 0.00,60.00,Monday
7,49.07731108998954
2,9, 1, 9, 0,15, 0.00,60.00,Monday
7,52.42486084248806
2,9, 1, 9, 0,16, 0.00,60.00,Monday
7,52.81817452076909
2,9, 1, 9, 0,17, 0.00,60.00,Monday
7,49.00868894864972
2,9, 1, 9, 0,18, 0.00,60.00,Monday
7,43.449641247137098
2,9, 1, 9, 0,19, 0.00,60.00,Monday
7,38.47133753127016
2,9, 1, 9, 0,20, 0.00,60.00,Monday
7,33.88671356821139
2,9, 1, 9, 0,21, 0.00,60.00,Monday
7,29.96509387666113
2,9, 1, 9, 0,22, 0.00,60.00,Monday
7,26.49014325170883
2,9, 1, 9, 0,23, 0.00,60.00,Monday
7,23.221821037130483
2,9, 1, 9, 0,24, 0.00,60.00,Monday
7,20.512898237083648
2,10, 1,10, 0, 1, 0.00,60.00,Tuesday
7,18.40615503336398
2,10, 1,10, 0, 2, 0.00,60.00,Tuesday
7,16.68155998802507
2,10, 1,10, 0, 3, 0.00,60.00,Tuesday
7,15.27674384405741
2,10, 1,10, 0, 4, 0.00,60.00,Tuesday
7,14.162315960442747
2,10, 1,10, 0, 5, 0.00,60.00,Tuesday
7,13.057354634424414
2,10, 1,10, 0, 6, 0.00,60.00,Tuesday
7,11.819899651392504
2,10, 1,10, 0, 7, 0.00,60.00,Tuesday
7,10.732971212132318
2,10, 1,10, 0, 8, 0.00,60.00,Tuesday
7,10.450554561897472
2,10, 1,10, 0, 9, 0.00,60.00,Tuesday
7,14.295607049270889
2,10, 1,10, 0,10, 0.00,60.00,Tuesday
7,21.84099568014446
2,10, 1,10, 0,11, 0.00,60.00,Tuesday
7,29.979133971849266
2,10, 1,10, 0,12, 0.00,60.00,Tuesday
7,38.21845766904981
2,10, 1,10, 0,13, 0.00,60.00,Tuesday
7,45.51851716196508
2,10, 1,10, 0,14, 0.00,60.00,Tuesday
7,50.925837520013079
2,10, 1,10, 0,15, 0.00,60.00,Tuesday
7,54.146822394613028
2,10, 1,10, 0,16, 0.00,60.00,Tuesday
7,54.458230047251507
2,10, 1,10, 0,17, 0.00,60.00,Tuesday
7,50.71171406341819
2,10, 1,10, 0,18, 0.00,60.00,Tuesday
7,45.196810129309209
2,10, 1,10, 0,19, 0.00,60.00,Tuesday
7,40.14285843645791
2,10, 1,10, 0,20, 0.00,60.00,Tuesday
7,35.62833925474026
2,10, 1,10, 0,21, 0.00,60.00,Tuesday
7,31.39304987955401
2,10, 1,10, 0,22, 0.00,60.00,Tuesday
7,27.83725463637953
2,10, 1,10, 0,23, 0.00,60.00,Tuesday
7,24.49845308488055
2,10, 1,10, 0,24, 0.00,60.00,Tuesday
7,21.590774682874696
2,11, 1,11, 0, 1, 0.00,60.00,Wednesday
7,19.229243290148096
2,11, 1,11, 0, 2, 0.00,60.00,Wednesday
7,17.03959809410701
2,11, 1,11, 0, 3, 0.00,60.00,Wednesday
7,15.041871823761423
2,11, 1,11, 0, 4, 0.00,60.00,Wednesday
7,13.416951668569137
2,11, 1,11, 0, 5, 0.00,60.00,Wednesday
7,12.281301062791642
2,11, 1,11, 0, 6, 0.00,60.00,Wednesday
7,11.356146003379223
2,11, 1,11, 0, 7, 0.00,60.00,Wednesday
7,10.556498976371149
2,11, 1,11, 0, 8, 0.00,60.00,Wednesday
7,9.955457590453758
2,11, 1,11, 0, 9, 0.00,60.00,Wednesday
7,10.010461687898804
2,11, 1,11, 0,10, 0.00,60.00,Wednesday
7,10.733893773604639
2,11, 1,11, 0,11, 0.00,60.00,Wednesday
7,12.173140334376909
2,11, 1,11, 0,12, 0.00,60.00,Wednesday
7,19.473854547293109
2,11, 1,11, 0,13, 0.00,60.00,Wednesday
7,29.312452892333277
2,11, 1,11, 0,14, 0.00,60.00,Wednesday
7,37.12208724743657
2,11, 1,11, 0,15, 0.00,60.00,Wednesday
7,42.33013277418419
2,11, 1,11, 0,16, 0.00,60.00,Wednesday
7,44.53870992800122
2,11, 1,11, 0,17, 0.00,60.00,Wednesday
7,42.449700875587847
2,11, 1,11, 0,18, 0.00,60.00,Wednesday
7,37.89889388640174
2,11, 1,11, 0,19, 0.00,60.00,Wednesday
7,33.71361740415571
2,11, 1,11, 0,20, 0.00,60.00,Wednesday
7,30.187668610044775
2,11, 1,11, 0,21, 0.00,60.00,Wednesday
7,26.91634745925657
2,11, 1,11, 0,22, 0.00,60.00,Wednesday
7,23.70276561995899
2,11, 1,11, 0,23, 0.00,60.00,Wednesday
7,20.82146320516393
2,11, 1,11, 0,24, 0.00,60.00,Wednesday
7,18.456580441895658
2,12, 1,12, 0, 1, 0.00,60.00,Thursday
7,16.520008236933923
2,12, 1,12, 0, 2, 0.00,60.00,Thursday
7,14.550835331663344
2,12, 1,12, 0, 3, 0.00,60.00,Thursday
7,12.891612645546252
2,12, 1,12, 0, 4, 0.00,60.00,Thursday
7,11.39888585003279
2,12, 1,12, 0, 5, 0.00,60.00,Thursday
7,10.092427900396756
2,12, 1,12, 0, 6, 0.00,60.00,Thursday
7,8.956108867058236
2,12, 1,12, 0, 7, 0.00,60.00,Thursday
7,7.894294398893134
2,12, 1,12, 0, 8, 0.00,60.00,Thursday
7,7.646304661260409
2,12, 1,12, 0, 9, 0.00,60.00,Thursday
7,12.429801926734106
2,12, 1,12, 0,10, 0.00,60.00,Thursday
7,20.953128158147963
2,12, 1,12, 0,11, 0.00,60.00,Thursday
7,29.980816409017565
2,12, 1,12, 0,12, 0.00,60.00,Thursday
7,38.618817158035067
2,12, 1,12, 0,13, 0.00,60.00,Thursday
7,46.29205918573756
2,12, 1,12, 0,14, 0.00,60.00,Thursday
7,51.98087767913586
2,12, 1,12, 0,15, 0.00,60.00,Thursday
7,55.331164680635399
2,12, 1,12, 0,16, 0.00,60.00,Thursday
7,55.93135863043345
2,12, 1,12, 0,17, 0.00,60.00,Thursday
7,52.382038268278197
2,12, 1,12, 0,18, 0.00,60.00,Thursday
7,46.51785371689419
2,12, 1,12, 0,19, 0.00,60.00,Thursday
7,41.05239072799522
2,12, 1,12, 0,20, 0.00,60.00,Thursday
7,36.347388082907219
2,12, 1,12, 0,21, 0.00,60.00,Thursday
7,32.02723455823851
2,12, 1,12, 0,22, 0.00,60.00,Thursday
7,28.231464752573659
2,12, 1,12, 0,23, 0.00,60.00,Thursday
7,24.915211044269598
2,12, 1,12, 0,24, 0.00,60.00,Thursday
7,21.815681671096518
2,13, 1,13, 0, 1, 0.00,60.00,Friday
7,19.41141846013419
2,13, 1,13, 0, 2, 0.00,60.00,Friday
7,17.42492333705536
2,13, 1,13, 0, 3, 0.00,60.00,Friday
7,15.441033950643036
2,13, 1,13, 0, 4, 0.00,60.00,Friday
7,13.881295993974
2,13, 1,13, 0, 5, 0.00,60.00,Friday
7,12.503613435769922
2,13, 1,13, 0, 6, 0.00,60.00,Friday
7,11.292420057391455
2,13, 1,13, 0, 7, 0.00,60.00,Friday
7,10.203254540490449
2,13, 1,13, 0, 8, 0.00,60.00,Friday
7,9.97404697041194
2,13, 1,13, 0, 9, 0.00,60.00,Friday
7,14.246099900460698
2,13, 1,13, 0,10, 0.00,60.00,Friday
7,22.575307315957916
2,13, 1,13, 0,11, 0.00,60.00,Friday
7,31.214372755021445
2,13, 1,13, 0,12, 0.00,60.00,Friday
7,39.33901988743021
2,13, 1,13, 0,13, 0.00,60.00,Friday
7,46.95219817194145
2,13, 1,13, 0,14, 0.00,60.00,Friday
7,52.937224062796179
2,13, 1,13, 0,15, 0.00,60.00,Friday
7,56.522467752472937
2,13, 1,13, 0,16, 0.00,60.00,Friday
7,56.956484281938077
2,13, 1,13, 0,17, 0.00,60.00,Friday
7,53.1503606083234
2,13, 1,13, 0,18, 0.00,60.00,Friday
7,47.460347491927738
2,13, 1,13, 0,19, 0.00,60.00,Friday
7,42.75435348780005
2,13, 1,13, 0,20, 0.00,60.00,Friday
7,38.215153835198787
2,13, 1,13, 0,21, 0.00,60.00,Friday
7,34.152324240577659
2,13, 1,13, 0,22, 0.00,60.00,Friday
7,30.62584105437535
2,13, 1,13, 0,23, 0.00,60.00,Friday
7,27.45620471967613
2,13, 1,13, 0,24, 0.00,60.00,Friday
7,24.976845459157688
2,14, 1,14, 0, 1, 0.00,60.00,Saturday
7,22.771637254917445
2,14, 1,14, 0, 2, 0.00,60.00,Saturday
7,20.537000426498574
2,14, 1,14, 0, 3, 0.00,60.00,Saturday
7,18.396834360005604
2,14, 1,14, 0, 4, 0.00,60.00,Saturday
7,16.39863709137743
2,14, 1,14, 0, 5, 0.00,60.00,Saturday
7,14.742471889217171
2,14, 1,14, 0, 6, 0.00,60.00,Saturday
7,13.23528712018243
2,14, 1,14, 0, 7, 0.00,60.00,Saturday
7,11.823167253084844
2,14, 1,14, 0, 8, 0.00,60.00,Saturday
7,10.58421082471508
2,14, 1,14, 0, 9, 0.00,60.00,Saturday
7,10.032126705067214
2,14, 1,14, 0,10, 0.00,60.00,Saturday
7,10.0858458589598
2,14, 1,14, 0,11, 0.00,60.00,Saturday
7,10.687335698109593
2,14, 1,14, 0,12, 0.00,60.00,Saturday
7,12.893092240451562
2,14, 1,14, 0,13, 0.00,60.00,Saturday
7,17.036582877901574
2,14, 1,14, 0,14, 0.00,60.00,Saturday
7,19.842994714504834
2,14, 1,14, 0,15, 0.00,60.00,Saturday
7,20.675830693478664
2,14, 1,14, 0,16, 0.00,60.00,Saturday
7,20.194834178916027
2,14, 1,14, 0,17, 0.00,60.00,Saturday
7,18.41950246956644
2,14, 1,14, 0,18, 0.00,60.00,Saturday
7,16.315405157959604
2,14, 1,14, 0,19, 0.00,60.00,Saturday
7,14.351649754729195
2,14, 1,14, 0,20, 0.00,60.00,Saturday
7,12.409801979806606
2,14, 1,14, 0,21, 0.00,60.00,Saturday
7,10.469712226601308
2,14, 1,14, 0,22, 0.00,60.00,Saturday
7,8.691100810842985
2,14, 1,14, 0,23, 0.00,60.00,Saturday
7,7.1439724847133789
2,14, 1,14, 0,24, 0.00,60.00,Saturday
7,5.805141881655576
2,15, 1,15, 0, 1, 0.00,60.00,Sunday
7,4.631754682018672
2,15, 1,15, 0, 2, 0.00,60.00,Sunday
7,3.614859546750784
2,15, 1,15, 0, 3, 0.00,60.00,Sunday
7,2.675457797396467
2,15, 1,15, 0, 4, 0.00,60.00,Sunday
7,1.7364606390082187
2,15, 1,15, 0, 5, 0.00,60.00,Sunday
7,0.7192811576506358
2,15, 1,15, 0, 6, 0.00,60.00,Sunday
7,-0.42472154623344518
2,15, 1,15, 0, 7, 0.00,60.00,Sunday
7,-1.5041584703775227
2,15, 1,15, 0, 8, 0.00,60.00,Sunday
7,-1.726128399159263
2,15, 1,15, 0, 9, 0.00,60.00,Sunday
7,2.9470426824279247
2,15, 1,15, 0,10, 0.00,60.00,Sunday
7,11.159830454342885
2,15, 1,15, 0,11, 0.00,60.00,Sunday
7,20.39882958046973
2,15, 1,15, 0,12, 0.00,60.00,Sunday
7,28.92101493157082
2,15, 1,15, 0,13, 0.00,60.00,Sunday
7,36.08233002232967
2,15, 1,15, 0,14, 0.00,60.00,Sunday
7,41.325667100985729
2,15, 1,15, 0,15, 0.00,60.00,Sunday
7,44.121193822381339
2,15, 1,15, 0,16, 0.00,60.00,Sunday
7,43.90537428227772
2,15, 1,15, 0,17, 0.00,60.00,Sunday
7,39.930523487579289
2,15, 1,15, 0,18, 0.00,60.00,Sunday
7,33.903814940125247
2,15, 1,15, 0,19, 0.00,60.00,Sunday
7,28.57240031968533
2,15, 1,15, 0,20, 0.00,60.00,Sunday
7,23.870772350553265
2,15, 1,15, 0,21, 0.00,60.00,Sunday
7,19.472524201006789
2,15, 1,15, 0,22, 0.00,60.00,Sunday
7,15.97890611496274
2,15, 1,15, 0,23, 0.00,60.00,Sunday
7,12.711239002042948
2,15, 1,15, 0,24, 0.00,60.00,Sunday
7,10.070027858367596
2,16, 1,16, 0, 1, 0.00,60.00,Monday
7,7.961401247322651
2,16, 1,16, 0, 2, 0.00,60.00,Monday
7,5.949702799172736
2,16, 1,16, 0, 3, 0.00,60.00,Monday
7,4.14053550572479
2,16, 1,16, 0, 4, 0.00,60.00,Monday
7,2.4933132032833544
2,16, 1,16, 0, 5, 0.00,60.00,Monday
7,1.0953563545382755
2,16, 1,16, 0, 6, 0.00,60.00,Monday
7,-0.013761255532758754
2,16, 1,16, 0, 7, 0.00,60.00,Monday
7,-0.9747501242121499
2,16, 1,16, 0, 8, 0.00,60.00,Monday
7,-1.2582898742647244
2,16, 1,16, 0, 9, 0.00,60.00,Monday
7,1.7470950146790044
2,16, 1,16, 0,10, 0.00,60.00,Monday
7,9.120542039088884
2,16, 1,16, 0,11, 0.00,60.00,Monday
7,17.399487300028605
2,16, 1,16, 0,12, 0.00,60.00,Monday
7,25.465076750728394
2,16, 1,16, 0,13, 0.00,60.00,Monday
7,32.35870075523741
2,16, 1,16, 0,14, 0.00,60.00,Monday
7,38.241938195675647
2,16, 1,16, 0,15, 0.00,60.00,Monday
7,41.60597317691369
2,16, 1,16, 0,16, 0.00,60.00,Monday
7,41.27543686353935
2,16, 1,16, 0,17, 0.00,60.00,Monday
7,38.07265496264934
2,16, 1,16, 0,18, 0.00,60.00,Monday
7,33.63980709996114
2,16, 1,16, 0,19, 0.00,60.00,Monday
7,30.12654666076915
2,16, 1,16, 0,20, 0.00,60.00,Monday
7,27.174876077119614
2,16, 1,16, 0,21, 0.00,60.00,Monday
7,24.931838542464136
2,16, 1,16, 0,22, 0.00,60.00,Monday
7,22.8130366489912
2,16, 1,16, 0,23, 0.00,60.00,Monday
7,20.748040790302225
2,16, 1,16, 0,24, 0.00,60.00,Monday
7,18.747866633232385
2,17, 1,17, 0, 1, 0.00,60.00,Tuesday
7,16.603612670833216
2,17, 1,17, 0, 2, 0.00,60.00,Tuesday
7,14.70652820510304
2,17, 1,17, 0, 3, 0.00,60.00,Tuesday
7,13.00931247334771
2,17, 1,17, 0, 4, 0.00,60.00,Tuesday
7,11.447001094783245
2,17, 1,17, 0, 5, 0.00,60.00,Tuesday
7,10.046561752204133
2,17, 1,17, 0, 6, 0.00,60.00,Tuesday
7,8.714714085771258
2,17, 1,17, 0, 7, 0.00,60.00,Tuesday
7,7.577877666298849
2,17, 1,17, 0, 8, 0.00,60.00,Tuesday
7,7.075153970444282
2,17, 1,17, 0, 9, 0.00,60.00,Tuesday
7,10.842408254037157
2,17, 1,17, 0,10, 0.00,60.00,Tuesday
7,18.828211956972664
2,17, 1,17, 0,11, 0.00,60.00,Tuesday
7,27.331902117846174
2,17, 1,17, 0,12, 0.00,60.00,Tuesday
7,35.49498636668349
2,17, 1,17, 0,13, 0.00,60.00,Tuesday
7,42.06493559006567
2,17, 1,17, 0,14, 0.00,60.00,Tuesday
7,47.09005762639721
2,17, 1,17, 0,15, 0.00,60.00,Tuesday
7,49.621500580316958
2,17, 1,17, 0,16, 0.00,60.00,Tuesday
7,49.307513651382418
2,17, 1,17, 0,17, 0.00,60.00,Tuesday
7,45.573085257786789
2,17, 1,17, 0,18, 0.00,60.00,Tuesday
7,40.06531082226955
2,17, 1,17, 0,19, 0.00,60.00,Tuesday
7,35.251444323015089
2,17, 1,17, 0,20, 0.00,60.00,Tuesday
7,30.90836856017988
2,17, 1,17, 0,21, 0.00,60.00,Tuesday
7,27.14707608575118
2,17, 1,17, 0,22, 0.00,60.00,Tuesday
7,23.728304713497289
2,17, 1,17, 0,23, 0.00,60.00,Tuesday
7,20.799958081745367
2,17, 1,17, 0,24, 0.00,60.00,Tuesday
7,18.417392320771755
2,18, 1,18, 0, 1, 0.00,60.00,Wednesday
7,16.629834098052485
2,18, 1,18, 0, 2, 0.00,60.00,Wednesday
7,15.607702420933004
2,18, 1,18, 0, 3, 0.00,60.00,Wednesday
7,14.87082672236756
2,18, 1,18, 0, 4, 0.00,60.00,Wednesday
7,14.140096084375779
2,18, 1,18, 0, 5, 0.00,60.00,Wednesday
7,13.07937913007439
2,18, 1,18, 0, 6, 0.00,60.00,Wednesday
7,11.747365679220409
2,18, 1,18, 0, 7, 0.00,60.00,Wednesday
7,10.733751961408153
2,18, 1,18, 0, 8, 0.00,60.00,Wednesday
7,10.74638986267868
2,18, 1,18, 0, 9, 0.00,60.00,Wednesday
7,14.75476554337515
2,18, 1,18, 0,10, 0.00,60.00,Wednesday
7,22.58233165379822
2,18, 1,18, 0,11, 0.00,60.00,Wednesday
7,31.293394335454168
2,18, 1,18, 0,12, 0.00,60.00,Wednesday
7,39.78469874699685
2,18, 1,18, 0,13, 0.00,60.00,Wednesday
7,46.80933460939404
2,18, 1,18, 0,14, 0.00,60.00,Wednesday
7,51.83790978911769
2,18, 1,18, 0,15, 0.00,60.00,Wednesday
7,54.690808634358187
2,18, 1,18, 0,16, 0.00,60.00,Wednesday
7,54.86734227890716
2,18, 1,18, 0,17, 0.00,60.00,Wednesday
7,51.33430402561022
2,18, 1,18, 0,18, 0.00,60.00,Wednesday
7,45.40755323208167
2,18, 1,18, 0,19, 0.00,60.00,Wednesday
7,39.54676247941833
2,18, 1,18, 0,20, 0.00,60.00,Wednesday
7,34.656960583028148
2,18, 1,18, 0,21, 0.00,60.00,Wednesday
7,30.603756111818098
2,18, 1,18, 0,22, 0.00,60.00,Wednesday
7,27.220012625817505
2,18, 1,18, 0,23, 0.00,60.00,Wednesday
7,23.94945789041786
2,18, 1,18, 0,24, 0.00,60.00,Wednesday
7,21.164023189613848
2,19, 1,19, 0, 1, 0.00,60.00,Thursday
7,18.750558581587563
2,19, 1,19, 0, 2, 0.00,60.00,Thursday
7,16.53434463720468
2,19, 1,19, 0, 3, 0.00,60.00,Thursday
7,14.60074087798363
2,19, 1,19, 0, 4, 0.00,60.00,Thursday
7,12.958197068198997
2,19, 1,19, 0, 5, 0.00,60.00,Thursday
7,11.471802333410146
2,19, 1,19, 0, 6, 0.00,60.00,Thursday
7,10.15771534621903
2,19, 1,19, 0, 7, 0.00,60.00,Thursday
7,9.061181234262732
2,19, 1,19, 0, 8, 0.00,60.00,Thursday
7,8.217135913465789
2,19, 1,19, 0, 9, 0.00,60.00,Thursday
7,7.934089518695513
2,19, 1,19, 0,10, 0.00,60.00,Thursday
7,8.38661879593797
2,19, 1,19, 0,11, 0.00,60.00,Thursday
7,9.259348774069672
2,19, 1,19, 0,12, 0.00,60.00,Thursday
7,10.14944403150232
2,19, 1,19, 0,13, 0.00,60.00,Thursday
7,9.85166300382021
2,19, 1,19, 0,14, 0.00,60.00,Thursday
7,9.233599519584532
2,19, 1,19, 0,15, 0.00,60.00,Thursday
7,8.637994560336221
2,19, 1,19, 0,16, 0.00,60.00,Thursday
7,7.994681279825638
2,19, 1,19, 0,17, 0.00,60.00,Thursday
7,7.25398137927587
2,19, 1,19, 0,18, 0.00,60.00,Thursday
7,6.43366128243376
2,19, 1,19, 0,19, 0.00,60.00,Thursday
7,5.704970985976884
2,19, 1,19, 0,20, 0.00,60.00,Thursday
7,4.957589630938488
2,19, 1,19, 0,21, 0.00,60.00,Thursday
7,4.220425066350207
2,19, 1,19, 0,22, 0.00,60.00,Thursday
7,3.6595740586655687
2,19, 1,19, 0,23, 0.00,60.00,Thursday
7,3.1286100933214318
2,19, 1,19, 0,24, 0.00,60.00,Thursday
7,2.5539222038111486
2,20, 1,20, 0, 1, 0.00,60.00,Friday
7,2.0438125874557588
2,20, 1,20, 0, 2, 0.00,60.00,Friday
7,1.5489925571892843
2,20, 1,20, 0, 3, 0.00,60.00,Friday
7,1.1005627234226805
2,20, 1,20, 0, 4, 0.00,60.00,Friday
7,0.6195870866236407
2,20, 1,20, 0, 5, 0.00,60.00,Friday
7,0.166402329437263
2,20, 1,20, 0, 6, 0.00,60.00,Friday
7,-0.526672328073402
2,20, 1,20, 0, 7, 0.00,60.00,Friday
7,-1.5689684427952249
2,20, 1,20, 0, 8, 0.00,60.00,Friday
7,-2.4640447618392797
2,20, 1,20, 0, 9, 0.00,60.00,Friday
7,-3.1484538725246624
2,20, 1,20, 0,10, 0.00,60.00,Friday
7,-3.385633123011311
2,20, 1,20, 0,11, 0.00,60.00,Friday
7,-3.170008834958382
2,20, 1,20, 0,12, 0.00,60.00,Friday
7,-2.664430809547041
2,20, 1,20, 0,13, 0.00,60.00,Friday
7,-2.0145955902810019
2,20, 1,20, 0,14, 0.00,60.00,Friday
7,-0.8644265348072647
2,20, 1,20, 0,15, 0.00,60.00,Friday
7,-0.7860036104114885
2,20, 1,20, 0,16, 0.00,60.00,Friday
7,-1.5658497252984645
2,20, 1,20, 0,17, 0.00,60.00,Friday
7,-2.454844716152022
2,20, 1,20, 0,18, 0.00,60.00,Friday
7,-3.4390642640702118
2,20, 1,20, 0,19, 0.00,60.00,Friday
7,-4.316294286831925
2,20, 1,20, 0,20, 0.00,60.00,Friday
7,-5.0876692370364549
2,20, 1,20, 0,21, 0.00,60.00,Friday
7,-5.8753189608774589
2,20, 1,20, 0,22, 0.00,60.00,Friday
7,-6.674835584330117
2,20, 1,20, 0,23, 0.00,60.00,Friday
7,-7.638552108336394
2,20, 1,20, 0,24, 0.00,60.00,Friday
7,-8.622710545769844
2,21, 1,21, 0, 1, 0.00,60.00,Saturday
7,-9.480068379731107
2,21, 1,21, 0, 2, 0.00,60.00,Saturday
7,-10.132999180441424
2,21, 1,21, 0, 3, 0.00,60.00,Saturday
7,-10.829694550982408
2,21, 1,21, 0, 4, 0.00,60.00,Saturday
7,-11.65636406937223
2,21, 1,21, 0, 5, 0.00,60.00,Saturday
7,-12.424319546085169
2,21, 1,21, 0, 6, 0.00,60.00,Saturday
7,-13.166510008599934
2,21, 1,21, 0, 7, 0.00,60.00,Saturday
7,-13.885652430345452
2,21, 1,21, 0, 8, 0.00,60.00,Saturday
7,-13.614034165613337
2,21, 1,21, 0, 9, 0.00,60.00,Saturday
7,-8.560728836176889
2,21, 1,21, 0,10, 0.00,60.00,Saturday
7,-0.2725397376859734
2,21, 1,21, 0,11, 0.00,60.00,Saturday
7,9.14704564221773
2,21, 1,21, 0,12, 0.00,60.00,Saturday
7,17.982383491582199
2,21, 1,21, 0,13, 0.00,60.00,Saturday