Program Version,EnergyPlus, Version 8.9.0-40101eaafd, YMD=2020.01.12 13:07
1,5,Environment Title[],Latitude[deg],Longitude[deg],Time Zone[],Elevation[m]
2,8,Day of Simulation[],Month[],Day of Month[],DST Indicator[1=yes 0=no],Hour[],StartMinute[],EndMinute[],DayType
3,5,Cumulative Day of Simulation[],Month[],Day of Month[],DST Indicator[1=yes 0=no],DayType  ! When Daily Report Variables Requested
4,2,Cumulative Days of Simulation[],Month[]  ! When Monthly Report Variables Requested
5,1,Cumulative Days of Simulation[] ! When Run Period Report Variables Requested
6,1,Calendar Year of Simulation[] ! When Annual Report Variables Requested
93,1,SYSTEM,Zone Ideal Loads Supply Air Total Heating Energy [J] !Hourly
130,11,SYSTEM,Zone Ideal Loads Supply Air Total Heating Energy [J] !RunPeriod [Value,Min,Month,Day,Hour,Minute,Max,Month,Day,Hour,Minute]
131,1,SYSTEM,Zone Ideal Loads Supply Air Total Cooling Energy [J] !Hourly
168,11,SYSTEM,Zone Ideal Loads Supply Air Total Cooling Energy [J] !RunPeriod [Value,Min,Month,Day,Hour,Minute,Max,Month,Day,Hour,Minute]
End of Data Dictionary
1,RUNPERIOD,  39.76,-104.86,  -7.00,1611.00
2,1, 1, 1, 0, 1, 0.00,60.00,Sunday
93,5599780.580988441
131,0.0
2,1, 1, 1, 0, 2, 0.00,60.00,Sunday
93,5585538.611259236
131,0.0
2,1, 1, 1, 0, 3, 0.00,60.00,Sunday
93,5676258.6235215109
131,0.0
2,1, 1, 1, 0, 4, 0.00,60.00,Sunday
93,5742896.996592034
131,0.0
2,1, 1, 1, 0, 5, 0.00,60.00,Sunday
93,5784889.752591053
131,0.0
2,1, 1, 1, 0, 6, 0.00,60.00,Sunday
93,5802826.4453614479
131,0.0
2,1, 1, 1, 0, 7, 0.00,60.00,Sunday
93,5491205.11762245
131,0.0
2,1, 1, 1, 0, 8, 0.00,60.00,Sunday
93,5014546.93168649
131,0.0
2,1, 1, 1, 0, 9, 0.00,60.00,Sunday
93,3591805.1123377659
131,0.0
2,1, 1, 1, 0,10, 0.00,60.00,Sunday
93,1838994.9334261185
131,0.0
2,1, 1, 1, 0,11, 0.00,60.00,Sunday
93,0.0
131,160885.61403441023
2,1, 1, 1, 0,12, 0.00,60.00,Sunday
93,0.0
131,7452427.229254112
2,1, 1, 1, 0,13, 0.00,60.00,Sunday
93,0.0
131,14908477.176607917
2,1, 1, 1, 0,14, 0.00,60.00,Sunday
93,0.0
131,17413937.121204474
2,1, 1, 1, 0,15, 0.00,60.00,Sunday
93,0.0
131,15870064.0835062
2,1, 1, 1, 0,16, 0.00,60.00,Sunday
93,0.0
131,11361661.298270023
2,1, 1, 1, 0,17, 0.00,60.00,Sunday
93,0.0
131,4010287.7801708236
2,1, 1, 1, 0,18, 0.00,60.00,Sunday
93,0.0
131,105399.84516783545
2,1, 1, 1, 0,19, 0.00,60.00,Sunday
93,0.0
131,0.0
2,1, 1, 1, 0,20, 0.00,60.00,Sunday
93,0.0
131,0.0
2,1, 1, 1, 0,21, 0.00,60.00,Sunday
93,1030416.0163482379
131,0.0
2,1, 1, 1, 0,22, 0.00,60.00,Sunday
93,2777305.825857639
131,0.0
2,1, 1, 1, 0,23, 0.00,60.00,Sunday
93,3985860.9396245719
131,0.0
2,1, 1, 1, 0,24, 0.00,60.00,Sunday
93,5110526.7407217849
131,0.0
2,2, 1, 2, 0, 1, 0.00,60.00,Monday
93,6126550.240414766
131,0.0
2,2, 1, 2, 0, 2, 0.00,60.00,Monday
93,6897670.176129663
131,0.0
2,2, 1, 2, 0, 3, 0.00,60.00,Monday
93,7578181.421593808
131,0.0
2,2, 1, 2, 0, 4, 0.00,60.00,Monday
93,8090885.611818457
131,0.0
2,2, 1, 2, 0, 5, 0.00,60.00,Monday
93,8499073.887957382
131,0.0
2,2, 1, 2, 0, 6, 0.00,60.00,Monday
93,8900579.109566296
131,0.0
2,2, 1, 2, 0, 7, 0.00,60.00,Monday
93,9246943.950195734
131,0.0
2,2, 1, 2, 0, 8, 0.00,60.00,Monday
93,9436150.88353302
131,0.0
2,2, 1, 2, 0, 9, 0.00,60.00,Monday
93,9404520.109532023
131,0.0
2,2, 1, 2, 0,10, 0.00,60.00,Monday
93,9220946.172867414
131,0.0
2,2, 1, 2, 0,11, 0.00,60.00,Monday
93,8939989.459759757
131,0.0
2,2, 1, 2, 0,12, 0.00,60.00,Monday
93,8886181.527901352
131,0.0
2,2, 1, 2, 0,13, 0.00,60.00,Monday
93,9086957.962901216
131,0.0
2,2, 1, 2, 0,14, 0.00,60.00,Monday
93,9286864.42925641
131,0.0
2,2, 1, 2, 0,15, 0.00,60.00,Monday
93,9508920.470533183
131,0.0
2,2, 1, 2, 0,16, 0.00,60.00,Monday
93,9905450.651384358
131,0.0
2,2, 1, 2, 0,17, 0.00,60.00,Monday
93,10509783.5745149
131,0.0
2,2, 1, 2, 0,18, 0.00,60.00,Monday
93,11037640.77456776
131,0.0
2,2, 1, 2, 0,19, 0.00,60.00,Monday
93,11326645.300395649
131,0.0
2,2, 1, 2, 0,20, 0.00,60.00,Monday
93,11489744.238734313
131,0.0
2,2, 1, 2, 0,21, 0.00,60.00,Monday
93,11608276.0224453
131,0.0
2,2, 1, 2, 0,22, 0.00,60.00,Monday
93,11740931.416871762
131,0.0
2,2, 1, 2, 0,23, 0.00,60.00,Monday
93,11902641.14383629
131,0.0
2,2, 1, 2, 0,24, 0.00,60.00,Monday
93,11969358.94422461
131,0.0
2,3, 1, 3, 0, 1, 0.00,60.00,Tuesday
93,12023127.794426155
131,0.0
2,3, 1, 3, 0, 2, 0.00,60.00,Tuesday
93,12027769.89041164
131,0.0
2,3, 1, 3, 0, 3, 0.00,60.00,Tuesday
93,11952091.696084826
131,0.0
2,3, 1, 3, 0, 4, 0.00,60.00,Tuesday
93,11941356.314178747
131,0.0
2,3, 1, 3, 0, 5, 0.00,60.00,Tuesday
93,12070625.70610793
131,0.0
2,3, 1, 3, 0, 6, 0.00,60.00,Tuesday
93,12294197.760923002
131,0.0
2,3, 1, 3, 0, 7, 0.00,60.00,Tuesday
93,12486750.677352438
131,0.0
2,3, 1, 3, 0, 8, 0.00,60.00,Tuesday
93,12312809.112303038
131,0.0
2,3, 1, 3, 0, 9, 0.00,60.00,Tuesday
93,11327266.03729345
131,0.0
2,3, 1, 3, 0,10, 0.00,60.00,Tuesday
93,10880079.545341468
131,0.0
2,3, 1, 3, 0,11, 0.00,60.00,Tuesday
93,9366998.211791445
131,0.0
2,3, 1, 3, 0,12, 0.00,60.00,Tuesday
93,1471301.6340285023
131,0.0
2,3, 1, 3, 0,13, 0.00,60.00,Tuesday
93,0.0
131,0.0
2,3, 1, 3, 0,14, 0.00,60.00,Tuesday
93,0.0
131,0.0
2,3, 1, 3, 0,15, 0.00,60.00,Tuesday
93,0.0
131,0.0
2,3, 1, 3, 0,16, 0.00,60.00,Tuesday
93,0.0
131,0.0
2,3, 1, 3, 0,17, 0.00,60.00,Tuesday
93,143112.07131496416
131,0.0
2,3, 1, 3, 0,18, 0.00,60.00,Tuesday
93,3980976.746303522
131,0.0
2,3, 1, 3, 0,19, 0.00,60.00,Tuesday
93,7649996.6769094089
131,0.0
2,3, 1, 3, 0,20, 0.00,60.00,Tuesday
93,9888491.62066279
131,0.0
2,3, 1, 3, 0,21, 0.00,60.00,Tuesday
93,11119859.225022626
131,0.0
2,3, 1, 3, 0,22, 0.00,60.00,Tuesday
93,11730675.93238196
131,0.0
2,3, 1, 3, 0,23, 0.00,60.00,Tuesday
93,12091198.671923254
131,0.0
2,3, 1, 3, 0,24, 0.00,60.00,Tuesday
93,12430926.815054704
131,0.0
2,4, 1, 4, 0, 1, 0.00,60.00,Wednesday
93,12870450.461972697
131,0.0
2,4, 1, 4, 0, 2, 0.00,60.00,Wednesday
93,13310676.20445779
131,0.0
2,4, 1, 4, 0, 3, 0.00,60.00,Wednesday
93,13477753.204428751
131,0.0
2,4, 1, 4, 0, 4, 0.00,60.00,Wednesday
93,13560141.393150974
131,0.0
2,4, 1, 4, 0, 5, 0.00,60.00,Wednesday
93,13640341.854851138
131,0.0
2,4, 1, 4, 0, 6, 0.00,60.00,Wednesday
93,13628604.19815065
131,0.0
2,4, 1, 4, 0, 7, 0.00,60.00,Wednesday
93,13633719.13796116
131,0.0
2,4, 1, 4, 0, 8, 0.00,60.00,Wednesday
93,12643694.90110417
131,0.0
2,4, 1, 4, 0, 9, 0.00,60.00,Wednesday
93,8035664.51257566
131,0.0
2,4, 1, 4, 0,10, 0.00,60.00,Wednesday
93,2337766.6369049928
131,0.0
2,4, 1, 4, 0,11, 0.00,60.00,Wednesday
93,0.0
131,92408.15384715406
2,4, 1, 4, 0,12, 0.00,60.00,Wednesday
93,0.0
131,5401476.235600289
2,4, 1, 4, 0,13, 0.00,60.00,Wednesday
93,0.0
131,10562401.814715667
2,4, 1, 4, 0,14, 0.00,60.00,Wednesday
93,0.0
131,12166161.114207816
2,4, 1, 4, 0,15, 0.00,60.00,Wednesday
93,0.0
131,10442044.293651883
2,4, 1, 4, 0,16, 0.00,60.00,Wednesday
93,0.0
131,5574926.955822522
2,4, 1, 4, 0,17, 0.00,60.00,Wednesday
93,0.0
131,212591.7058178162
2,4, 1, 4, 0,18, 0.00,60.00,Wednesday
93,738296.9793529298
131,0.0
2,4, 1, 4, 0,19, 0.00,60.00,Wednesday
93,4891841.248837442
131,0.0
2,4, 1, 4, 0,20, 0.00,60.00,Wednesday
93,7949489.541507777
131,0.0
2,4, 1, 4, 0,21, 0.00,60.00,Wednesday
93,9838909.373627017
131,0.0
2,4, 1, 4, 0,22, 0.00,60.00,Wednesday
93,10926205.68999926
131,0.0
2,4, 1, 4, 0,23, 0.00,60.00,Wednesday
93,11343472.251866846
131,0.0
2,4, 1, 4, 0,24, 0.00,60.00,Wednesday
93,11547658.367602196
131,0.0
2,5, 1, 5, 0, 1, 0.00,60.00,Thursday
93,11690706.60408021
131,0.0
2,5, 1, 5, 0, 2, 0.00,60.00,Thursday
93,11704483.173378557
131,0.0
2,5, 1, 5, 0, 3, 0.00,60.00,Thursday
93,11628205.977507428
131,0.0
2,5, 1, 5, 0, 4, 0.00,60.00,Thursday
93,9887630.990680214
131,0.0
2,5, 1, 5, 0, 5, 0.00,60.00,Thursday
93,8967588.445001236
131,0.0
2,5, 1, 5, 0, 6, 0.00,60.00,Thursday
93,9294980.615397595
131,0.0
2,5, 1, 5, 0, 7, 0.00,60.00,Thursday
93,9351330.173146306
131,0.0
2,5, 1, 5, 0, 8, 0.00,60.00,Thursday
93,7999974.745464903
131,0.0
2,5, 1, 5, 0, 9, 0.00,60.00,Thursday
93,2064601.1792357292
131,0.0
2,5, 1, 5, 0,10, 0.00,60.00,Thursday
93,0.0
131,127786.11410925159
2,5, 1, 5, 0,11, 0.00,60.00,Thursday
93,0.0
131,5718109.808768326
2,5, 1, 5, 0,12, 0.00,60.00,Thursday
93,0.0
131,11859414.527208057
2,5, 1, 5, 0,13, 0.00,60.00,Thursday
93,0.0
131,15602809.885184218
2,5, 1, 5, 0,14, 0.00,60.00,Thursday
93,0.0
131,16871496.970602406
2,5, 1, 5, 0,15, 0.00,60.00,Thursday
93,0.0
131,15151799.326692041
2,5, 1, 5, 0,16, 0.00,60.00,Thursday
93,0.0
131,10400882.025035624
2,5, 1, 5, 0,17, 0.00,60.00,Thursday
93,0.0
131,3280680.81126943
2,5, 1, 5, 0,18, 0.00,60.00,Thursday
93,0.0
131,0.0
2,5, 1, 5, 0,19, 0.00,60.00,Thursday
93,0.0
131,0.0
2,5, 1, 5, 0,20, 0.00,60.00,Thursday
93,665869.9634893704
131,0.0
2,5, 1, 5, 0,21, 0.00,60.00,Thursday
93,2794480.82375543
131,0.0
2,5, 1, 5, 0,22, 0.00,60.00,Thursday
93,4285904.877937237
131,0.0
2,5, 1, 5, 0,23, 0.00,60.00,Thursday
93,5246448.120207331
131,0.0
2,5, 1, 5, 0,24, 0.00,60.00,Thursday
93,5790481.986469009
131,0.0
2,6, 1, 6, 0, 1, 0.00,60.00,Friday
93,6162174.610591743
131,0.0
2,6, 1, 6, 0, 2, 0.00,60.00,Friday
93,6508749.59848042
131,0.0
2,6, 1, 6, 0, 3, 0.00,60.00,Friday
93,6426286.170022857
131,0.0
2,6, 1, 6, 0, 4, 0.00,60.00,Friday
93,6042992.138972018
131,0.0
2,6, 1, 6, 0, 5, 0.00,60.00,Friday
93,6179855.880463657
131,0.0
2,6, 1, 6, 0, 6, 0.00,60.00,Friday
93,6532313.147154225
131,0.0
2,6, 1, 6, 0, 7, 0.00,60.00,Friday
93,6669622.4748848979
131,0.0
2,6, 1, 6, 0, 8, 0.00,60.00,Friday
93,5753981.28455486
131,0.0
2,6, 1, 6, 0, 9, 0.00,60.00,Friday
93,932259.6977953636
131,0.0
2,6, 1, 6, 0,10, 0.00,60.00,Friday
93,0.0
131,791844.3061250618
2,6, 1, 6, 0,11, 0.00,60.00,Friday
93,0.0
131,9277646.540828668
2,6, 1, 6, 0,12, 0.00,60.00,Friday
93,0.0
131,16501337.269298017
2,6, 1, 6, 0,13, 0.00,60.00,Friday
93,0.0
131,20562165.006171127
2,6, 1, 6, 0,14, 0.00,60.00,Friday
93,0.0
131,21146552.918142864
2,6, 1, 6, 0,15, 0.00,60.00,Friday
93,0.0
131,18172469.740226728
2,6, 1, 6, 0,16, 0.00,60.00,Friday
93,0.0
131,12356759.621647712
2,6, 1, 6, 0,17, 0.00,60.00,Friday
93,0.0
131,4531143.72352247
2,6, 1, 6, 0,18, 0.00,60.00,Friday
93,0.0
131,146986.05759663927
2,6, 1, 6, 0,19, 0.00,60.00,Friday
93,0.0
131,0.0
2,6, 1, 6, 0,20, 0.00,60.00,Friday
93,0.0
131,0.0
2,6, 1, 6, 0,21, 0.00,60.00,Friday
93,852923.1173676874
131,0.0
2,6, 1, 6, 0,22, 0.00,60.00,Friday
93,2628846.867148824
131,0.0
2,6, 1, 6, 0,23, 0.00,60.00,Friday
93,3818926.1834764059
131,0.0
2,6, 1, 6, 0,24, 0.00,60.00,Friday
93,4189888.3565410117
131,0.0
2,7, 1, 7, 0, 1, 0.00,60.00,Saturday
93,4562041.349447785
131,0.0
2,7, 1, 7, 0, 2, 0.00,60.00,Saturday
93,5211966.760779128
131,0.0
2,7, 1, 7, 0, 3, 0.00,60.00,Saturday
93,5659196.6982583519
131,0.0
2,7, 1, 7, 0, 4, 0.00,60.00,Saturday
93,6073093.419608779
131,0.0
2,7, 1, 7, 0, 5, 0.00,60.00,Saturday
93,6328656.429724726
131,0.0
2,7, 1, 7, 0, 6, 0.00,60.00,Saturday
93,6428479.580386745
131,0.0
2,7, 1, 7, 0, 7, 0.00,60.00,Saturday
93,6505996.23659024
131,0.0
2,7, 1, 7, 0, 8, 0.00,60.00,Saturday
93,5463479.6231722109
131,0.0
2,7, 1, 7, 0, 9, 0.00,60.00,Saturday
93,798907.0031863357
131,0.0
2,7, 1, 7, 0,10, 0.00,60.00,Saturday
93,0.0
131,1428698.2878462575
2,7, 1, 7, 0,11, 0.00,60.00,Saturday
93,0.0
131,10210646.254447733
2,7, 1, 7, 0,12, 0.00,60.00,Saturday
93,0.0
131,17319622.480580354
2,7, 1, 7, 0,13, 0.00,60.00,Saturday
93,0.0
131,20189661.217719117
2,7, 1, 7, 0,14, 0.00,60.00,Saturday
93,0.0
131,19863812.424337359
2,7, 1, 7, 0,15, 0.00,60.00,Saturday
93,0.0
131,16994417.931896993
2,7, 1, 7, 0,16, 0.00,60.00,Saturday
93,0.0
131,11796766.652356377
2,7, 1, 7, 0,17, 0.00,60.00,Saturday
93,0.0
131,4169178.982414349
2,7, 1, 7, 0,18, 0.00,60.00,Saturday
93,0.0
131,63277.63493013999
2,7, 1, 7, 0,19, 0.00,60.00,Saturday
93,0.0
131,0.0
2,7, 1, 7, 0,20, 0.00,60.00,Saturday
93,341049.20636038688
131,0.0
2,7, 1, 7, 0,21, 0.00,60.00,Saturday
93,2251477.5264365987
131,0.0
2,7, 1, 7, 0,22, 0.00,60.00,Saturday
93,4047422.1710807245
131,0.0
2,7, 1, 7, 0,23, 0.00,60.00,Saturday
93,5211149.528144207
131,0.0
2,7, 1, 7, 0,24, 0.00,60.00,Saturday
93,5984078.36279395
131,0.0
2,8, 1, 8, 0, 1, 0.00,60.00,Sunday
93,6477326.1396174649
131,0.0
2,8, 1, 8, 0, 2, 0.00,60.00,Sunday
93,6727145.729451907
131,0.0
2,8, 1, 8, 0, 3, 0.00,60.00,Sunday
93,6930535.328186799
131,0.0
2,8, 1, 8, 0, 4, 0.00,60.00,Sunday
93,7004714.996137646
131,0.0
2,8, 1, 8, 0, 5, 0.00,60.00,Sunday
93,6841253.488079476
131,0.0
2,8, 1, 8, 0, 6, 0.00,60.00,Sunday
93,6745715.113512045
131,0.0
2,8, 1, 8, 0, 7, 0.00,60.00,Sunday
93,6812893.32863774
131,0.0
2,8, 1, 8, 0, 8, 0.00,60.00,Sunday
93,5953920.134421365
131,0.0
2,8, 1, 8, 0, 9, 0.00,60.00,Sunday
93,1293761.0688845746
131,0.0
2,8, 1, 8, 0,10, 0.00,60.00,Sunday
93,0.0
131,335325.97991640647
2,8, 1, 8, 0,11, 0.00,60.00,Sunday
93,0.0
131,7956842.653235979
2,8, 1, 8, 0,12, 0.00,60.00,Sunday
93,0.0
131,15799884.448310402
2,8, 1, 8, 0,13, 0.00,60.00,Sunday
93,0.0
131,19475782.226664246
2,8, 1, 8, 0,14, 0.00,60.00,Sunday
93,0.0
131,19744157.715446999
2,8, 1, 8, 0,15, 0.00,60.00,Sunday
93,0.0
131,17253847.5590041
2,8, 1, 8, 0,16, 0.00,60.00,Sunday
93,0.0
131,12186594.70305426
2,8, 1, 8, 0,17, 0.00,60.00,Sunday
93,0.0
131,4644288.278145978
2,8, 1, 8, 0,18, 0.00,60.00,Sunday
93,0.0
131,154112.35345664435
2,8, 1, 8, 0,19, 0.00,60.00,Sunday
93,0.0
131,0.0
2,8, 1, 8, 0,20, 0.00,60.00,Sunday
93,104351.71960213334
131,0.0
2,8, 1, 8, 0,21, 0.00,60.00,Sunday
93,1999301.5996544173
131,0.0
2,8, 1, 8, 0,22, 0.00,60.00,Sunday
93,3891107.5062059245
131,0.0
2,8, 1, 8, 0,23, 0.00,60.00,Sunday
93,5208050.54365141
131,0.0
2,8, 1, 8, 0,24, 0.00,60.00,Sunday
93,6139281.950707092
131,0.0
2,9, 1, 9, 0, 1, 0.00,60.00,Monday
93,6721368.33431622
131,0.0
2,9, 1, 9, 0, 2, 0.00,60.00,Monday
93,7006241.863593224
131,0.0
2,9, 1, 9, 0, 3, 0.00,60.00,Monday
93,7205754.925131872
131,0.0
2,9, 1, 9, 0, 4, 0.00,60.00,Monday
93,7272241.635675252
131,0.0
2,9, 1, 9, 0, 5, 0.00,60.00,Monday
93,7230768.145345099
131,0.0
2,9, 1, 9, 0, 6, 0.00,60.00,Monday
93,7229941.851518967
131,0.0
2,9, 1, 9, 0, 7, 0.00,60.00,Monday
93,7130433.906307373
131,0.0
2,9, 1, 9, 0, 8, 0.00,60.00,Monday
93,5868768.897864513
131,0.0
2,9, 1, 9, 0, 9, 0.00,60.00,Monday
93,901298.2673553391
131,0.0
2,9, 1, 9, 0,10, 0.00,60.00,Monday
93,0.0
131,1190995.3904265718
2,9, 1, 9, 0,11, 0.00,60.00,Monday
93,0.0
131,9844319.646108929
2,9, 1, 9, 0,12, 0.00,60.00,Monday
93,0.0
131,16710710.913628214
2,9, 1, 9, 0,13, 0.00,60.00,Monday
93,0.0
131,20129411.633351886
2,9, 1, 9, 0,14, 0.00,60.00,Monday
93,0.0
131,20361393.66378603
2,9, 1, 9, 0,15, 0.00,60.00,Monday
93,0.0
131,17906263.684936748
2,9, 1, 9, 0,16, 0.00,60.00,Monday
93,0.0
131,12760524.371851396
2,9, 1, 9, 0,17, 0.00,60.00,Monday
93,0.0
131,5098286.014751706
2,9, 1, 9, 0,18, 0.00,60.00,Monday
93,0.0
131,270436.4448272345
2,9, 1, 9, 0,19, 0.00,60.00,Monday
93,0.0
131,0.0
2,9, 1, 9, 0,20, 0.00,60.00,Monday
93,0.0
131,0.0
2,9, 1, 9, 0,21, 0.00,60.00,Monday
93,1084761.4401215828
131,0.0
2,9, 1, 9, 0,22, 0.00,60.00,Monday
93,2911339.997806696
131,0.0
2,9, 1, 9, 0,23, 0.00,60.00,Monday
93,4070541.2907274209
131,0.0
2,9, 1, 9, 0,24, 0.00,60.00,Monday
93,4794438.778331103
131,0.0
2,10, 1,10, 0, 1, 0.00,60.00,Tuesday
93,4981336.942525663
131,0.0
2,10, 1,10, 0, 2, 0.00,60.00,Tuesday
93,4915691.279491206
131,0.0
2,10, 1,10, 0, 3, 0.00,60.00,Tuesday
93,4795574.176766117
131,0.0
2,10, 1,10, 0, 4, 0.00,60.00,Tuesday
93,4647579.835204238
131,0.0
2,10, 1,10, 0, 5, 0.00,60.00,Tuesday
93,4754732.501106391
131,0.0
2,10, 1,10, 0, 6, 0.00,60.00,Tuesday
93,5023565.691448543
131,0.0
2,10, 1,10, 0, 7, 0.00,60.00,Tuesday
93,5233625.186796464
131,0.0
2,10, 1,10, 0, 8, 0.00,60.00,Tuesday
93,4265955.44693071
131,0.0
2,10, 1,10, 0, 9, 0.00,60.00,Tuesday
93,426580.36641495409
131,0.0
2,10, 1,10, 0,10, 0.00,60.00,Tuesday
93,0.0
131,1021696.0918262501
2,10, 1,10, 0,11, 0.00,60.00,Tuesday
93,0.0
131,9346549.308686154
2,10, 1,10, 0,12, 0.00,60.00,Tuesday
93,0.0
131,16503974.339128878
2,10, 1,10, 0,13, 0.00,60.00,Tuesday
93,0.0
131,20100383.598357828
2,10, 1,10, 0,14, 0.00,60.00,Tuesday
93,0.0
131,20355350.274041304
2,10, 1,10, 0,15, 0.00,60.00,Tuesday
93,0.0
131,18056323.64337238
2,10, 1,10, 0,16, 0.00,60.00,Tuesday
93,0.0
131,12998275.727361883
2,10, 1,10, 0,17, 0.00,60.00,Tuesday
93,0.0
131,5619225.967244845
2,10, 1,10, 0,18, 0.00,60.00,Tuesday
93,0.0
131,555110.5261467588
2,10, 1,10, 0,19, 0.00,60.00,Tuesday
93,0.0
131,0.0
2,10, 1,10, 0,20, 0.00,60.00,Tuesday
93,0.0
131,0.0
2,10, 1,10, 0,21, 0.00,60.00,Tuesday
93,755830.8678198983
131,0.0
2,10, 1,10, 0,22, 0.00,60.00,Tuesday
93,2512506.6349829325
131,0.0
2,10, 1,10, 0,23, 0.00,60.00,Tuesday
93,3816514.0380107008
131,0.0
2,10, 1,10, 0,24, 0.00,60.00,Tuesday
93,4652634.019571431
131,0.0
2,11, 1,11, 0, 1, 0.00,60.00,Wednesday
93,5146221.815917628
131,0.0
2,11, 1,11, 0, 2, 0.00,60.00,Wednesday
93,5426877.213319792
131,0.0
2,11, 1,11, 0, 3, 0.00,60.00,Wednesday
93,5705702.634073516
131,0.0
2,11, 1,11, 0, 4, 0.00,60.00,Wednesday
93,5733480.537992439
131,0.0
2,11, 1,11, 0, 5, 0.00,60.00,Wednesday
93,5454064.397197127
131,0.0
2,11, 1,11, 0, 6, 0.00,60.00,Wednesday
93,5210402.847452672
131,0.0
2,11, 1,11, 0, 7, 0.00,60.00,Wednesday
93,5059803.422575792
131,0.0
2,11, 1,11, 0, 8, 0.00,60.00,Wednesday
93,4834456.443668081
131,0.0
2,11, 1,11, 0, 9, 0.00,60.00,Wednesday
93,3947097.8929901949
131,0.0
2,11, 1,11, 0,10, 0.00,60.00,Wednesday
93,2791462.350006027
131,0.0
2,11, 1,11, 0,11, 0.00,60.00,Wednesday
93,1202941.224454612
131,0.0
2,11, 1,11, 0,12, 0.00,60.00,Wednesday
93,0.0
131,906457.5985553506
2,11, 1,11, 0,13, 0.00,60.00,Wednesday
93,0.0
131,9632356.005513398
2,11, 1,11, 0,14, 0.00,60.00,Wednesday
93,0.0
131,15858290.50980886
2,11, 1,11, 0,15, 0.00,60.00,Wednesday
93,0.0
131,16275002.45756077
2,11, 1,11, 0,16, 0.00,60.00,Wednesday
93,0.0
131,12832908.994576745
2,11, 1,11, 0,17, 0.00,60.00,Wednesday
93,0.0
131,5848839.668667234
2,11, 1,11, 0,18, 0.00,60.00,Wednesday
93,0.0
131,554060.9810467818
2,11, 1,11, 0,19, 0.00,60.00,Wednesday
93,0.0
131,0.0
2,11, 1,11, 0,20, 0.00,60.00,Wednesday
93,0.0
131,0.0
2,11, 1,11, 0,21, 0.00,60.00,Wednesday
93,512250.6595939166
131,0.0
2,11, 1,11, 0,22, 0.00,60.00,Wednesday
93,2281731.3123585919
131,0.0
2,11, 1,11, 0,23, 0.00,60.00,Wednesday
93,3719750.988224351
131,0.0
2,11, 1,11, 0,24, 0.00,60.00,Wednesday
93,4630118.1409620209
131,0.0
2,12, 1,12, 0, 1, 0.00,60.00,Thursday
93,5094100.019900139
131,0.0
2,12, 1,12, 0, 2, 0.00,60.00,Thursday
93,5394024.255178999
131,0.0
2,12, 1,12, 0, 3, 0.00,60.00,Thursday
93,5669887.263348151
131,0.0
2,12, 1,12, 0, 4, 0.00,60.00,Thursday
93,5891024.062376421
131,0.0
2,12, 1,12, 0, 5, 0.00,60.00,Thursday
93,6027271.944685603
131,0.0
2,12, 1,12, 0, 6, 0.00,60.00,Thursday
93,6091462.68675566
131,0.0
2,12, 1,12, 0, 7, 0.00,60.00,Thursday
93,6257559.22061987
131,0.0
2,12, 1,12, 0, 8, 0.00,60.00,Thursday
93,4996660.045090482
131,0.0
2,12, 1,12, 0, 9, 0.00,60.00,Thursday
93,481647.21530494568
131,0.0
2,12, 1,12, 0,10, 0.00,60.00,Thursday
93,0.0
131,1993509.7536005388
2,12, 1,12, 0,11, 0.00,60.00,Thursday
93,0.0
131,11567455.175985616
2,12, 1,12, 0,12, 0.00,60.00,Thursday
93,0.0
131,18394092.806555898
2,12, 1,12, 0,13, 0.00,60.00,Thursday
93,0.0
131,21523498.112713517
2,12, 1,12, 0,14, 0.00,60.00,Thursday
93,0.0
131,21573199.434734838
2,12, 1,12, 0,15, 0.00,60.00,Thursday
93,0.0
131,19002093.095951458
2,12, 1,12, 0,16, 0.00,60.00,Thursday
93,0.0
131,14044643.88664876
2,12, 1,12, 0,17, 0.00,60.00,Thursday
93,0.0
131,6418032.031189667
2,12, 1,12, 0,18, 0.00,60.00,Thursday
93,0.0
131,688761.8320696922
2,12, 1,12, 0,19, 0.00,60.00,Thursday
93,0.0
131,0.0
2,12, 1,12, 0,20, 0.00,60.00,Thursday
93,0.0
131,0.0
2,12, 1,12, 0,21, 0.00,60.00,Thursday
93,785960.7597135503
131,0.0
2,12, 1,12, 0,22, 0.00,60.00,Thursday
93,2603258.117830742
131,0.0
2,12, 1,12, 0,23, 0.00,60.00,Thursday
93,3922149.6264346719
131,0.0
2,12, 1,12, 0,24, 0.00,60.00,Thursday
93,4791270.792356543
131,0.0
2,13, 1,13, 0, 1, 0.00,60.00,Friday
93,5204914.732472284
131,0.0
2,13, 1,13, 0, 2, 0.00,60.00,Friday
93,5377923.562359655
131,0.0
2,13, 1,13, 0, 3, 0.00,60.00,Friday
93,5459204.092862509
131,0.0
2,13, 1,13, 0, 4, 0.00,60.00,Friday
93,5498679.648092707
131,0.0
2,13, 1,13, 0, 5, 0.00,60.00,Friday
93,5538467.08288823
131,0.0
2,13, 1,13, 0, 6, 0.00,60.00,Friday
93,5573283.544469346
131,0.0
2,13, 1,13, 0, 7, 0.00,60.00,Friday
93,5626931.192774853
131,0.0
2,13, 1,13, 0, 8, 0.00,60.00,Friday
93,4446894.548198814
131,0.0
2,13, 1,13, 0, 9, 0.00,60.00,Friday
93,383645.62498835255
131,0.0
2,13, 1,13, 0,10, 0.00,60.00,Friday
93,0.0
131,1958178.9596095379
2,13, 1,13, 0,11, 0.00,60.00,Friday
93,0.0
131,11120253.222457568
2,13, 1,13, 0,12, 0.00,60.00,Friday
93,0.0
131,17725776.22678402
2,13, 1,13, 0,13, 0.00,60.00,Friday
93,0.0
131,21279185.995375076
2,13, 1,13, 0,14, 0.00,60.00,Friday
93,0.0
131,21978395.982910895
2,13, 1,13, 0,15, 0.00,60.00,Friday
93,0.0
131,19671576.601956645
2,13, 1,13, 0,16, 0.00,60.00,Friday
93,0.0
131,14500478.249729045
2,13, 1,13, 0,17, 0.00,60.00,Friday
93,0.0
131,6536419.988745756
2,13, 1,13, 0,18, 0.00,60.00,Friday
93,0.0
131,901520.3855258665
2,13, 1,13, 0,19, 0.00,60.00,Friday
93,0.0
131,0.0
2,13, 1,13, 0,20, 0.00,60.00,Friday
93,0.0
131,0.0
2,13, 1,13, 0,21, 0.00,60.00,Friday
93,0.0
131,0.0
2,13, 1,13, 0,22, 0.00,60.00,Friday
93,1014873.8410425582
131,0.0
2,13, 1,13, 0,23, 0.00,60.00,Friday
93,2295649.6215347165
131,0.0
2,13, 1,13, 0,24, 0.00,60.00,Friday
93,2883892.9615693476
131,0.0
2,14, 1,14, 0, 1, 0.00,60.00,Saturday
93,3430852.2232584978
131,0.0
2,14, 1,14, 0, 2, 0.00,60.00,Saturday
93,4078810.6583873669
131,0.0
2,14, 1,14, 0, 3, 0.00,60.00,Saturday
93,4626411.016620632
131,0.0
2,14, 1,14, 0, 4, 0.00,60.00,Saturday
93,4972937.286758502
131,0.0
2,14, 1,14, 0, 5, 0.00,60.00,Saturday
93,5191529.318294311
131,0.0
2,14, 1,14, 0, 6, 0.00,60.00,Saturday
93,5378743.457875969
131,0.0
2,14, 1,14, 0, 7, 0.00,60.00,Saturday
93,5612793.177976092
131,0.0
2,14, 1,14, 0, 8, 0.00,60.00,Saturday
93,5665523.852832699
131,0.0
2,14, 1,14, 0, 9, 0.00,60.00,Saturday
93,5013557.269347777
131,0.0
2,14, 1,14, 0,10, 0.00,60.00,Saturday
93,4048339.4442396697
131,0.0
2,14, 1,14, 0,11, 0.00,60.00,Saturday
93,2866152.5247004616
131,0.0
2,14, 1,14, 0,12, 0.00,60.00,Saturday
93,758004.9775605009
131,0.0
2,14, 1,14, 0,13, 0.00,60.00,Saturday
93,0.0
131,0.0
2,14, 1,14, 0,14, 0.00,60.00,Saturday
93,0.0
131,0.0
2,14, 1,14, 0,15, 0.00,60.00,Saturday
93,0.0
131,0.0
2,14, 1,14, 0,16, 0.00,60.00,Saturday
93,0.0
131,0.0
2,14, 1,14, 0,17, 0.00,60.00,Saturday
93,0.0
131,0.0
2,14, 1,14, 0,18, 0.00,60.00,Saturday
93,1043657.7046210102
131,0.0
2,14, 1,14, 0,19, 0.00,60.00,Saturday
93,2960009.9591993477
131,0.0
2,14, 1,14, 0,20, 0.00,60.00,Saturday
93,4490723.115422979
131,0.0
2,14, 1,14, 0,21, 0.00,60.00,Saturday
93,5746931.19502031
131,0.0
2,14, 1,14, 0,22, 0.00,60.00,Saturday
93,6588264.222632511
131,0.0
2,14, 1,14, 0,23, 0.00,60.00,Saturday
93,7067381.841544121
131,0.0
2,14, 1,14, 0,24, 0.00,60.00,Saturday
93,7326251.26287973
131,0.0
2,15, 1,15, 0, 1, 0.00,60.00,Sunday
93,7465055.781835781
131,0.0
2,15, 1,15, 0, 2, 0.00,60.00,Sunday
93,7536683.378359733
131,0.0
2,15, 1,15, 0, 3, 0.00,60.00,Sunday
93,7622412.459924147
131,0.0
2,15, 1,15, 0, 4, 0.00,60.00,Sunday
93,7807656.757014216
131,0.0
2,15, 1,15, 0, 5, 0.00,60.00,Sunday
93,8154990.701525341
131,0.0
2,15, 1,15, 0, 6, 0.00,60.00,Sunday
93,8614511.42133385
131,0.0
2,15, 1,15, 0, 7, 0.00,60.00,Sunday
93,8954735.05140474
131,0.0
2,15, 1,15, 0, 8, 0.00,60.00,Sunday
93,7792002.296008285
131,0.0
2,15, 1,15, 0, 9, 0.00,60.00,Sunday
93,1858971.1607936025
131,0.0
2,15, 1,15, 0,10, 0.00,60.00,Sunday
93,0.0
131,278979.4858923218
2,15, 1,15, 0,11, 0.00,60.00,Sunday
93,0.0
131,7454940.16213865
2,15, 1,15, 0,12, 0.00,60.00,Sunday
93,0.0
131,14474313.557540363
2,15, 1,15, 0,13, 0.00,60.00,Sunday
93,0.0
131,17265498.947091104
2,15, 1,15, 0,14, 0.00,60.00,Sunday
93,0.0
131,17083660.81260742
2,15, 1,15, 0,15, 0.00,60.00,Sunday
93,0.0
131,14287927.748394184
2,15, 1,15, 0,16, 0.00,60.00,Sunday
93,0.0
131,9035287.493830286
2,15, 1,15, 0,17, 0.00,60.00,Sunday
93,0.0
131,1925158.5696329377
2,15, 1,15, 0,18, 0.00,60.00,Sunday
93,0.0
131,0.0
2,15, 1,15, 0,19, 0.00,60.00,Sunday
93,641966.5329607918
131,0.0
2,15, 1,15, 0,20, 0.00,60.00,Sunday
93,3951042.6376857266
131,0.0
2,15, 1,15, 0,21, 0.00,60.00,Sunday
93,6387355.564336896
131,0.0
2,15, 1,15, 0,22, 0.00,60.00,Sunday
93,7706758.740738541
131,0.0
2,15, 1,15, 0,23, 0.00,60.00,Sunday
93,8450562.71769534
131,0.0
2,15, 1,15, 0,24, 0.00,60.00,Sunday
93,8862170.623156969
131,0.0
2,16, 1,16, 0, 1, 0.00,60.00,Monday
93,8984527.261488121
131,0.0
2,16, 1,16, 0, 2, 0.00,60.00,Monday
93,9006622.62418242
131,0.0
2,16, 1,16, 0, 3, 0.00,60.00,Monday
93,9106410.878908232
131,0.0
2,16, 1,16, 0, 4, 0.00,60.00,Monday
93,9277034.77554002
131,0.0
2,16, 1,16, 0, 5, 0.00,60.00,Monday
93,9309841.14026822
131,0.0
2,16, 1,16, 0, 6, 0.00,60.00,Monday
93,9188849.556944378
131,0.0
2,16, 1,16, 0, 7, 0.00,60.00,Monday
93,9138814.828493178
131,0.0
2,16, 1,16, 0, 8, 0.00,60.00,Monday
93,8057504.899120383
131,0.0
2,16, 1,16, 0, 9, 0.00,60.00,Monday
93,3169005.6150501647
131,0.0
2,16, 1,16, 0,10, 0.00,60.00,Monday
93,0.0
131,0.0
2,16, 1,16, 0,11, 0.00,60.00,Monday
93,0.0
131,3933336.8548337474
2,16, 1,16, 0,12, 0.00,60.00,Monday
93,0.0
131,10674302.281736205
2,16, 1,16, 0,13, 0.00,60.00,Monday
93,0.0
131,14661978.995683287
2,16, 1,16, 0,14, 0.00,60.00,Monday
93,0.0
131,15925601.162169407
2,16, 1,16, 0,15, 0.00,60.00,Monday
93,0.0
131,13964332.916879883
2,16, 1,16, 0,16, 0.00,60.00,Monday
93,0.0
131,8249499.58096195
2,16, 1,16, 0,17, 0.00,60.00,Monday
93,0.0
131,2169991.654185123
2,16, 1,16, 0,18, 0.00,60.00,Monday
93,0.0
131,0.0
2,16, 1,16, 0,19, 0.00,60.00,Monday
93,0.0
131,0.0
2,16, 1,16, 0,20, 0.00,60.00,Monday
93,0.0
131,0.0
2,16, 1,16, 0,21, 0.00,60.00,Monday
93,552523.8719617969
131,0.0
2,16, 1,16, 0,22, 0.00,60.00,Monday
93,1699576.5120787642
131,0.0
2,16, 1,16, 0,23, 0.00,60.00,Monday
93,2525014.2869159465
131,0.0
2,16, 1,16, 0,24, 0.00,60.00,Monday
93,3422314.3030473545
131,0.0
2,17, 1,17, 0, 1, 0.00,60.00,Tuesday
93,4442019.630129142
131,0.0
2,17, 1,17, 0, 2, 0.00,60.00,Tuesday
93,5073442.258429554
131,0.0
2,17, 1,17, 0, 3, 0.00,60.00,Tuesday
93,5511556.503013141
131,0.0
2,17, 1,17, 0, 4, 0.00,60.00,Tuesday
93,5831855.205697559
131,0.0
2,17, 1,17, 0, 5, 0.00,60.00,Tuesday
93,6080129.015616522
131,0.0
2,17, 1,17, 0, 6, 0.00,60.00,Tuesday
93,6316520.946403415
131,0.0
2,17, 1,17, 0, 7, 0.00,60.00,Tuesday
93,6403683.267048946
131,0.0
2,17, 1,17, 0, 8, 0.00,60.00,Tuesday
93,5590029.1178211229
131,0.0
2,17, 1,17, 0, 9, 0.00,60.00,Tuesday
93,919713.8137578236
131,0.0
2,17, 1,17, 0,10, 0.00,60.00,Tuesday
93,0.0
131,737318.3614952695
2,17, 1,17, 0,11, 0.00,60.00,Tuesday
93,0.0
131,9123045.972676434
2,17, 1,17, 0,12, 0.00,60.00,Tuesday
93,0.0
131,15588245.064339854
2,17, 1,17, 0,13, 0.00,60.00,Tuesday
93,0.0
131,18152414.92658264
2,17, 1,17, 0,14, 0.00,60.00,Tuesday
93,0.0
131,18166391.465660547
2,17, 1,17, 0,15, 0.00,60.00,Tuesday
93,0.0
131,15437666.189092484
2,17, 1,17, 0,16, 0.00,60.00,Tuesday
93,0.0
131,10359937.094056433
2,17, 1,17, 0,17, 0.00,60.00,Tuesday
93,0.0
131,3607941.3630918955
2,17, 1,17, 0,18, 0.00,60.00,Tuesday
93,0.0
131,0.0
2,17, 1,17, 0,19, 0.00,60.00,Tuesday
93,0.0
131,0.0
2,17, 1,17, 0,20, 0.00,60.00,Tuesday
93,296993.79310290966
131,0.0
2,17, 1,17, 0,21, 0.00,60.00,Tuesday
93,2238759.6801735574
131,0.0
2,17, 1,17, 0,22, 0.00,60.00,Tuesday
93,3778493.9422730125
131,0.0
2,17, 1,17, 0,23, 0.00,60.00,Tuesday
93,4768342.8269062549
131,0.0
2,17, 1,17, 0,24, 0.00,60.00,Tuesday
93,5337338.154761868
131,0.0
2,18, 1,18, 0, 1, 0.00,60.00,Wednesday
93,5140208.175422205
131,0.0
2,18, 1,18, 0, 2, 0.00,60.00,Wednesday
93,4455909.6517116
131,0.0
2,18, 1,18, 0, 3, 0.00,60.00,Wednesday
93,3940783.4229037344
131,0.0
2,18, 1,18, 0, 4, 0.00,60.00,Wednesday
93,3770277.095534453
131,0.0
2,18, 1,18, 0, 5, 0.00,60.00,Wednesday
93,4193827.7694278445
131,0.0
2,18, 1,18, 0, 6, 0.00,60.00,Wednesday
93,4749562.380680852
131,0.0
2,18, 1,18, 0, 7, 0.00,60.00,Wednesday
93,4992720.601773145
131,0.0
2,18, 1,18, 0, 8, 0.00,60.00,Wednesday
93,3679463.3355801405
131,0.0
2,18, 1,18, 0, 9, 0.00,60.00,Wednesday
93,282187.11036712318
131,0.0
2,18, 1,18, 0,10, 0.00,60.00,Wednesday
93,0.0
131,1960867.724602318
2,18, 1,18, 0,11, 0.00,60.00,Wednesday
93,0.0
131,11408537.551306768
2,18, 1,18, 0,12, 0.00,60.00,Wednesday
93,0.0
131,17787190.03448035
2,18, 1,18, 0,13, 0.00,60.00,Wednesday
93,0.0
131,20466226.33504445
2,18, 1,18, 0,14, 0.00,60.00,Wednesday
93,0.0
131,20313174.12989428
2,18, 1,18, 0,15, 0.00,60.00,Wednesday
93,0.0
131,17816096.924445344
2,18, 1,18, 0,16, 0.00,60.00,Wednesday
93,0.0
131,12995794.703027476
2,18, 1,18, 0,17, 0.00,60.00,Wednesday
93,0.0
131,6010263.883835206
2,18, 1,18, 0,18, 0.00,60.00,Wednesday
93,0.0
131,552346.136549431